integrator      = md
dt              = 0.002
nsteps          = 50000        ; 100 ps
nstxout         = 0
nstvout         = 0
nstenergy       = 500
nstlog          = 500

continuation    = yes
constraint_algorithm = lincs
constraints     = h-bonds

cutoff-scheme   = Verlet
coulombtype     = PME
rcoulomb        = 1.0
rvdw            = 1.0
pbc             = xyz
DispCorr        = EnerPres

tcoupl          = V-rescale
tc-grps         = System
tau_t           = 0.1
ref_t           = 300

pcoupl          = C-rescale
pcoupltype      = isotropic
tau_p           = 2.0
ref_p           = 1.0
compressibility = 4.5e-5

gen_vel         = no
