define		= -DPOSRES ; position restrain the protein
; Run parameters
integrator	= md		; leap-frog integrator
nsteps		= 10000000	; 20 ns
dt              = 0.002		; 2 fs
; Output control
nstxout-compressed = 2500	; save xtc every 5.0 ps
nstxout		= 0		; save coordinates every 0 ps
nstvout		= 0		; save velocities every 0.0 ps
nstenergy	= 5000		; save energies every 10.0 ps
nstlog		= 5000		; update log file every 10.0 ps
; Bond parameters
continuation	        = yes		; first dynamics run
constraint_algorithm    = lincs	    ; holonomic constraints 
constraints	            = h-bonds	; all bonds (even heavy atom-H bonds) constrained
lincs_iter	            = 1		    ; accuracy of LINCS
lincs_order	            = 4		    ; also related to accuracy
; Neighborsearching
cutoff-scheme   = Verlet
ns_type		    = grid		; search neighboring grid cells
nstlist		    = 10		; 20 fs, largely irrelevant with Verlet
rcoulomb	    = 1.0		; short-range electrostatic cutoff (in nm)
rvdw		    = 1.0		; short-range van der Waals cutoff (in nm)
; Electrostatics
coulombtype	    = PME	; Particle Mesh Ewald for long-range electrostatics
pme_order	    = 4		; cubic interpolation
fourierspacing	= 0.16	; grid spacing for FFT
; Temperature coupling is on
tcoupl		= V-rescale	            ; modified Berendsen thermostat
tc-grps		= Protein_LIG  Water_and_ions    ; two coupling groups - more accurate
tau_t		= 0.1	  0.1           ; time constant, in ps
ref_t		= 300 	  300           ; reference temperature, one for each group, in K
; Pressure coupling is off
pcoupl		= no 		; no pressure coupling in NVT
; Periodic boundary conditions
pbc		= xyz		    ; 3-D PBC
; Dispersion correction
DispCorr	= EnerPres	; account for cut-off vdW scheme

